
                                 *****************
                                 * O   R   C   A *
                                 *****************

           --- An Ab Initio, DFT and Semiempirical electronic structure package ---

                  #######################################################
                  #                        -***-                        #
                  #  Department of molecular theory and spectroscopy    #
                  #              Directorship: Frank Neese              #
                  # Max Planck Institute for Chemical Energy Conversion #
                  #                  D-45470 Muelheim/Ruhr              #
                  #                       Germany                       #
                  #                                                     #
                  #                  All rights reserved                #
                  #                        -***-                        #
                  #######################################################


                         Program Version 4.0.1.2 - RELEASE -


 With contributions from (in alphabetic order):
   Daniel Aravena         : Magnetic Properties
   Michael Atanasov       : Ab Initio Ligand Field Theory
   Ute Becker             : Parallelization
   Martin Brehm           : Molecular dynamics
   Dmytro Bykov           : SCF Hessian
   Vijay G. Chilkuri      : MRCI spin determinant printing
   Dipayan Datta          : RHF DLPNO-CCSD density
   Achintya Kumar Dutta   : EOM-CC, STEOM-CC
   Dmitry Ganyushin       : Spin-Orbit,Spin-Spin,Magnetic field MRCI
   Yang Guo               : DLPNO-NEVPT2, CIM, IAO-localization
   Andreas Hansen         : Spin unrestricted coupled pair/coupled cluster methods
   Lee Huntington         : MR-EOM, pCC
   Robert Izsak           : Overlap fitted RIJCOSX, COSX-SCS-MP3, EOM
   Christian Kollmar      : KDIIS, OOCD, Brueckner-CCSD(T), CCSD density
   Simone Kossmann        : Meta GGA functionals, TD-DFT gradient, OOMP2, MP2 Hessian
   Martin Krupicka        : AUTO-CI
   Dagmar Lenk            : GEPOL surface
   Dimitrios Liakos       : Extrapolation schemes; parallel MDCI
   Dimitrios Manganas     : ROCIS; embedding schemes
   Dimitrios Pantazis     : SARC Basis sets
   Taras Petrenko         : DFT Hessian,TD-DFT gradient, ASA, ECA, R-Raman, ABS, FL, XAS/XES, NRVS
   Peter Pinski           : DLPNO-MP2
   Christoph Reimann      : Effective Core Potentials
   Marius Retegan         : Local ZFS, SOC
   Christoph Riplinger    : Optimizer, TS searches, QM/MM, DLPNO-CCSD(T), (RO)-DLPNO pert. Triples
   Tobias Risthaus        : Range-separated hybrids, TD-DFT gradient, RPA, STAB
   Michael Roemelt        : Restricted open shell CIS
   Masaaki Saitow         : Open-shell DLPNO
   Barbara Sandhoefer     : DKH picture change effects
   Kantharuban Sivalingam : CASSCF convergence, NEVPT2, FIC-MRCI
   Georgi Stoychev        : AutoAux
   Boris Wezisla          : Elementary symmetry handling
   Frank Wennmohs         : Technical directorship


 We gratefully acknowledge several colleagues who have allowed us to
 interface, adapt or use parts of their codes:
   Stefan Grimme, W. Hujo, H. Kruse,             : VdW corrections, initial TS optimization,
                  C. Bannwarth                     DFT functionals, gCP, sTDA/sTD-DF
   Ed Valeev                                     : LibInt (2-el integral package), F12 methods
   Garnet Chan, S. Sharma, J. Yang, R. Olivares  : DMRG
   Ulf Ekstrom                                   : XCFun DFT Library
   Mihaly Kallay                                 : mrcc  (arbitrary order and MRCC methods)
   Andreas Klamt, Michael Diedenhofen            : otool_cosmo (COSMO solvation model)
   Jiri Pittner, Ondrej Demel                    : Mk-CCSD
   Frank Weinhold                                : gennbo (NPA and NBO analysis)
   Christopher J. Cramer and Donald G. Truhlar   : smd solvation model


 Your calculation uses the libint2 library for the computation of 2-el integrals
 For citations please refer to: http://libint.valeyev.net

 This ORCA versions uses:
   CBLAS   interface :  Fast vector & matrix operations
   LAPACKE interface :  Fast linear algebra routines
   SCALAPACK package :  Parallel linear algebra routines


Your calculation utilizes the geometrical counterpoise correction gCP
Please cite in your paper:
H.Kruse, S. Grimme J.Chem.Phys., 136, (2012), 154101 
   

Your calculation utilizes the atom-pairwise dispersion correction
with the Becke-Johnson damping scheme (D3BJ)
Cite in your paper:
S.Grimme, S.Ehrlich, L.Goerigk, J Comput Chem, (2011), 32, 1456–1465 
S.Grimme, J.Antony, S.Ehrlich and H.Krieg, J.Chem.Phys., 132, (2010), 154104 
   

Your calculation employs the composite approach PBEh-3c.
Please cite in your paper:
S. Grimme, J. G. Brandenburg, C. Bannwarth, A. Hansen J.Chem.Phys., 143, (2015), 054107 
   

Your calculation utilizes the basis: def2-mSVP

Your calculation utilizes the auxiliary basis: def2/J
   F. Weigend, Phys. Chem. Chem. Phys. 8, 1057 (2006).

================================================================================
                                        WARNINGS
                       Please study these warnings very carefully!
================================================================================

Warning: TCutStore was < 0. Adjusted to Thresh (uncritical)

WARNING: Split-RI-J cannot be used together with RIJONX
  ===> : Split-RI-J will be disabled

WARNING: Geometry Optimization
  ===> : Switching off AutoStart
         For restart on a previous wavefunction, please use MOREAD

INFO   : the flag for use of LIBINT has been found!

================================================================================
                                       INPUT FILE
================================================================================
NAME = benzene.inp
|  1> ! PBEh-3c Opt Freq
|  2> 
|  3> * xyz 0 1
|  4> C        1.7547506487      1.7925351130     -1.0660673544                 
|  5> C        0.9508398981      2.8745041913     -1.4407555197                 
|  6> C        1.4544049414      1.0655150267      0.0908920517                 
|  7> C       -0.1534224118      3.2294480579     -0.6584884260                 
|  8> C        0.3501423920      1.4204586345      0.8731589245                 
|  9> C       -0.4537734221      2.5024223276      0.4984660609                 
| 10> H        2.6090360168      1.5179373746     -1.6712539479                 
| 11> H        1.1831993307      3.4369510642     -2.3358086855                 
| 12> H        2.0763365799      0.2284771152      0.3807646521                 
| 13> H       -0.7753507645      4.0664894641     -0.9483579886                 
| 14> H        0.1177858199      0.8580147913      1.7682147377                 
| 15> H       -1.3080649656      2.7770134934      1.1036469228                 
| 16> *
| 17> %pal
| 18>  nprocs 4
| 19> end
| 20> 
| 21>                          ****END OF INPUT****
================================================================================

                       *****************************
                       * Geometry Optimization Run *
                       *****************************

Geometry optimization settings:
Update method            Update   .... BFGS
Choice of coordinates    CoordSys .... Redundant Internals
Initial Hessian          InHess   .... Almoef's Model

Convergence Tolerances:
Energy Change            TolE     ....  5.0000e-06 Eh
Max. Gradient            TolMAXG  ....  3.0000e-04 Eh/bohr
RMS Gradient             TolRMSG  ....  1.0000e-04 Eh/bohr
Max. Displacement        TolMAXD  ....  4.0000e-03 bohr
RMS Displacement         TolRMSD  ....  2.0000e-03 bohr

------------------------------------------------------------------------------
                        ORCA OPTIMIZATION COORDINATE SETUP
------------------------------------------------------------------------------

The optimization will be done in new redundant internal coordinates
Making redundant internal coordinates   ...  (new redundants) done
Evaluating the initial hessian          ...  (Almloef) done
Evaluating the coordinates              ...  done
Calculating the B-matrix                .... done
Calculating the G-matrix                .... done
Diagonalizing the G-matrix              .... done
The first mode is                       ....   24
The number of degrees of freedom        ....   30

    -----------------------------------------------------------------
                    Redundant Internal Coordinates


    -----------------------------------------------------------------
         Definition                    Initial Value    Approx d2E/dq
    -----------------------------------------------------------------
      1. B(C   1,C   0)                  1.3990         0.604382   
      2. B(C   2,C   0)                  1.3990         0.604382   
      3. B(C   3,C   1)                  1.3990         0.604381   
      4. B(C   4,C   2)                  1.3990         0.604381   
      5. B(C   5,C   4)                  1.3990         0.604382   
      6. B(C   5,C   3)                  1.3990         0.604382   
      7. B(H   6,C   0)                  1.0823         0.370378   
      8. B(H   7,C   1)                  1.0823         0.370379   
      9. B(H   8,C   2)                  1.0823         0.370379   
     10. B(H   9,C   3)                  1.0823         0.370379   
     11. B(H  10,C   4)                  1.0823         0.370379   
     12. B(H  11,C   5)                  1.0823         0.370378   
     13. A(C   1,C   0,C   2)          120.0000         0.430104   
     14. A(C   1,C   0,H   6)          120.0000         0.353066   
     15. A(C   2,C   0,H   6)          120.0000         0.353066   
     16. A(C   3,C   1,H   7)          120.0000         0.353066   
     17. A(C   0,C   1,H   7)          120.0000         0.353066   
     18. A(C   0,C   1,C   3)          120.0000         0.430104   
     19. A(C   4,C   2,H   8)          120.0000         0.353066   
     20. A(C   0,C   2,H   8)          120.0000         0.353066   
     21. A(C   0,C   2,C   4)          120.0000         0.430104   
     22. A(C   5,C   3,H   9)          120.0000         0.353066   
     23. A(C   1,C   3,H   9)          120.0000         0.353066   
     24. A(C   1,C   3,C   5)          120.0000         0.430104   
     25. A(C   2,C   4,H  10)          120.0000         0.353066   
     26. A(C   2,C   4,C   5)          120.0000         0.430104   
     27. A(C   5,C   4,H  10)          120.0000         0.353066   
     28. A(C   3,C   5,C   4)          120.0000         0.430104   
     29. A(C   4,C   5,H  11)          120.0000         0.353066   
     30. A(C   3,C   5,H  11)          120.0000         0.353066   
     31. D(H   7,C   1,C   0,C   2)    179.9996         0.025201   
     32. D(H   7,C   1,C   0,H   6)     -0.0003         0.025201   
     33. D(C   3,C   1,C   0,H   6)    179.9997         0.025201   
     34. D(C   3,C   1,C   0,C   2)     -0.0004         0.025201   
     35. D(H   8,C   2,C   0,C   1)   -179.9996         0.025201   
     36. D(C   4,C   2,C   0,C   1)      0.0004         0.025201   
     37. D(C   4,C   2,C   0,H   6)   -179.9997         0.025201   
     38. D(H   8,C   2,C   0,H   6)      0.0003         0.025201   
     39. D(H   9,C   3,C   1,H   7)     -0.0000         0.025201   
     40. D(H   9,C   3,C   1,C   0)   -180.0000         0.025201   
     41. D(C   5,C   3,C   1,H   7)    179.9999         0.025201   
     42. D(C   5,C   3,C   1,C   0)     -0.0000         0.025201   
     43. D(H  10,C   4,C   2,C   0)    179.9999         0.025201   
     44. D(C   5,C   4,C   2,H   8)   -180.0000         0.025201   
     45. D(C   5,C   4,C   2,C   0)     -0.0000         0.025201   
     46. D(H  10,C   4,C   2,H   8)     -0.0000         0.025201   
     47. D(H  11,C   5,C   4,H  10)     -0.0003         0.025201   
     48. D(C   3,C   5,C   4,H  10)    179.9996         0.025201   
     49. D(C   3,C   5,C   4,C   2)     -0.0004         0.025201   
     50. D(H  11,C   5,C   3,H   9)      0.0003         0.025201   
     51. D(H  11,C   5,C   3,C   1)   -179.9997         0.025201   
     52. D(H  11,C   5,C   4,C   2)    179.9997         0.025201   
     53. D(C   4,C   5,C   3,H   9)   -179.9996         0.025201   
     54. D(C   4,C   5,C   3,C   1)      0.0004         0.025201   
    -----------------------------------------------------------------

Number of atoms                         .... 12
Number of degrees of freedom            .... 54

         *************************************************************
         *                GEOMETRY OPTIMIZATION CYCLE   1            *
         *************************************************************
---------------------------------
CARTESIAN COORDINATES (ANGSTROEM)
---------------------------------
  C      1.754751    1.792535   -1.066067
  C      0.950840    2.874504   -1.440756
  C      1.454405    1.065515    0.090892
  C     -0.153422    3.229448   -0.658488
  C      0.350142    1.420459    0.873159
  C     -0.453773    2.502422    0.498466
  H      2.609036    1.517937   -1.671254
  H      1.183199    3.436951   -2.335809
  H      2.076337    0.228477    0.380765
  H     -0.775351    4.066489   -0.948358
  H      0.117786    0.858015    1.768215
  H     -1.308065    2.777013    1.103647

----------------------------
CARTESIAN COORDINATES (A.U.)
----------------------------
  NO LB      ZA    FRAG     MASS         X           Y           Z
   0 C     6.0000    0    12.011    3.315998    3.387400   -2.014575
   1 C     6.0000    0    12.011    1.796827    5.432026   -2.722633
   2 C     6.0000    0    12.011    2.748427    2.013532    0.171761
   3 C     6.0000    0    12.011   -0.289926    6.102772   -1.244363
   4 C     6.0000    0    12.011    0.661673    2.684278    1.650031
   5 C     6.0000    0    12.011   -0.857507    4.728893    0.941964
   6 H     1.0000    0     1.008    4.930364    2.868486   -3.158212
   7 H     1.0000    0     1.008    2.235923    6.494896   -4.414039
   8 H     1.0000    0     1.008    3.923707    0.431759    0.719541
   9 H     1.0000    0     1.008   -1.465201    7.684551   -1.792137
  10 H     1.0000    0     1.008    0.222583    1.621413    3.341442
  11 H     1.0000    0     1.008   -2.471885    5.247795    2.085590

--------------------------------
INTERNAL COORDINATES (ANGSTROEM)
--------------------------------
 C      0   0   0     0.000000000000     0.00000000     0.00000000
 C      1   0   0     1.399042816551     0.00000000     0.00000000
 C      1   2   0     1.399042821768   120.00002373     0.00000000
 C      2   1   3     1.399043317195   119.99998841     0.00000000
 C      3   1   2     1.399043317058   119.99998802     0.00000000
 C      5   3   1     1.399042819709   119.99998833     0.00000000
 H      1   2   3     1.082339235654   119.99998832   180.00009744
 H      2   1   3     1.082338930447   120.00001986   179.99963218
 H      3   1   2     1.082338926916   120.00001989   180.00038062
 H      4   2   1     1.082338927928   119.99999171   180.00003357
 H      5   3   1     1.082338931248   119.99999133   179.99993396
 H      6   5   3     1.082339237597   119.99998838   179.99968325

---------------------------
INTERNAL COORDINATES (A.U.)
---------------------------
 C      0   0   0     0.000000000000     0.00000000     0.00000000
 C      1   0   0     2.643807772912     0.00000000     0.00000000
 C      1   2   0     2.643807782770   120.00002373     0.00000000
 C      2   1   3     2.643808718992   119.99998841     0.00000000
 C      3   1   2     2.643808718733   119.99998802     0.00000000
 C      5   3   1     2.643807778879   119.99998833     0.00000000
 H      1   2   3     2.045324739384   119.99998832   180.00009744
 H      2   1   3     2.045324162627   120.00001986   179.99963218
 H      3   1   2     2.045324155954   120.00001989   180.00038062
 H      4   2   1     2.045324157865   119.99999171   180.00003357
 H      5   3   1     2.045324164139   119.99999133   179.99993396
 H      6   5   3     2.045324743055   119.99998838   179.99968325

---------------------
BASIS SET INFORMATION
---------------------
There are 2 groups of distinct atoms

 Group   1 Type C   : 8s4p1d contracted to 4s2p1d pattern {5111/31/1}
 Group   2 Type H   : 4s contracted to 2s pattern {31}

Atom   0C    basis set group =>   1
Atom   1C    basis set group =>   1
Atom   2C    basis set group =>   1
Atom   3C    basis set group =>   1
Atom   4C    basis set group =>   1
Atom   5C    basis set group =>   1
Atom   6H    basis set group =>   2
Atom   7H    basis set group =>   2
Atom   8H    basis set group =>   2
Atom   9H    basis set group =>   2
Atom  10H    basis set group =>   2
Atom  11H    basis set group =>   2
-------------------------------
AUXILIARY BASIS SET INFORMATION
-------------------------------
There are 2 groups of distinct atoms

 Group   1 Type C   : 12s5p4d2f1g contracted to 6s4p3d1f1g pattern {711111/2111/211/2/1}
 Group   2 Type H   : 5s2p1d contracted to 3s1p1d pattern {311/2/1}

Atom   0C    basis set group =>   1
Atom   1C    basis set group =>   1
Atom   2C    basis set group =>   1
Atom   3C    basis set group =>   1
Atom   4C    basis set group =>   1
Atom   5C    basis set group =>   1
Atom   6H    basis set group =>   2
Atom   7H    basis set group =>   2
Atom   8H    basis set group =>   2
Atom   9H    basis set group =>   2
Atom  10H    basis set group =>   2
Atom  11H    basis set group =>   2


           ************************************************************
           *        Program running with 4 parallel MPI-processes     *
           *              working on a common directory               *
           ************************************************************
------------------------------------------------------------------------------
                           ORCA GTO INTEGRAL CALCULATION
                           -- RI-GTO INTEGRALS CHOSEN --
------------------------------------------------------------------------------

                         BASIS SET STATISTICS AND STARTUP INFO

Gaussian basis set:
 # of primitive gaussian shells          ...  102
 # of primitive gaussian functions       ...  174
 # of contracted shells                  ...   54
 # of contracted basis functions         ...  102
 Highest angular momentum                ...    2
 Maximum contraction depth               ...    5
Auxiliary gaussian basis set:
 # of primitive gaussian shells          ...  192
 # of primitive gaussian functions       ...  516
 # of contracted shells                  ...  120
 # of contracted aux-basis functions     ...  360
 Highest angular momentum                ...    4
 Maximum contraction depth               ...    7
Ratio of auxiliary to basis functions    ...  3.53
Integral package used                  ... LIBINT
 One Electron integrals                  ... done
 Ordering auxiliary basis shells         ... done
 Integral threshhold             Thresh  ...  2.500e-11
 Primitive cut-off               TCut    ...  2.500e-12
 Pre-screening matrix                    ... done
 Shell pair data                         ... 
 Ordering of the shell pairs             ... done (   0.000 sec) 1428 of 1485 pairs
 Determination of significant pairs      ... done (   0.000 sec)
 Creation of shell pair data             ... done (   0.000 sec)
 Storage of shell pair data              ... done (   0.001 sec)
 Shell pair data done in (   0.001 sec)
 Computing two index integrals           ... done
 Cholesky decomposition of the V-matrix  ... done


Timings:
 Total evaluation time                   ...   0.303 sec (  0.005 min)
 One electron matrix time                ...   0.014 sec (  0.000 min) =  4.6%
 Schwartz matrix evaluation time         ...   0.162 sec (  0.003 min) = 53.6%
 Two index repulsion integral time       ...   0.023 sec (  0.000 min) =  7.7%
 Cholesky decomposition of V             ...   0.083 sec (  0.001 min) = 27.3%
 Three index repulsion integral time     ...   0.000 sec (  0.000 min) =  0.0%



           ************************************************************
           *        Program running with 4 parallel MPI-processes     *
           *              working on a common directory               *
           ************************************************************
-------------------------------------------------------------------------------
                                 ORCA SCF
-------------------------------------------------------------------------------

------------
SCF SETTINGS
------------
Hamiltonian:
 Density Functional     Method          .... DFT(GTOs)
 Exchange Functional    Exchange        .... PBE
   PBE kappa parameter   XKappa         ....  1.024500
   PBE mue parameter    XMuePBE         ....  0.123457
 Correlation Functional Correlation     .... PBE
   PBE beta parameter  CBetaPBE         ....  0.030000
 LDA part of GGA corr.  LDAOpt          .... PW91-LDA
 Gradients option       PostSCFGGA      .... off
 Hybrid DFT is turned on
   Fraction HF Exchange ScalHFX         ....  0.420000
   Scaling of DF-GGA-X  ScalDFX         ....  0.580000
   Scaling of DF-GGA-C  ScalDFC         ....  1.000000
   Scaling of DF-LDA-C  ScalLDAC        ....  1.000000
   Perturbative correction              ....  0.000000
 RI-approximation to the Coulomb term is turned on
   Number of auxiliary basis functions  .... 360
   RIJ-ON(X) (HFX calculated with O(N)) .... on


General Settings:
 Integral files         IntName         .... benzene
 Hartree-Fock type      HFTyp           .... RHF
 Total Charge           Charge          ....    0
 Multiplicity           Mult            ....    1
 Number of Electrons    NEL             ....   42
 Basis Dimension        Dim             ....  102
 Nuclear Repulsion      ENuc            ....    203.0193346409 Eh

Convergence Acceleration:
 DIIS                   CNVDIIS         .... on
   Start iteration      DIISMaxIt       ....    12
   Startup error        DIISStart       ....  0.200000
   # of expansion vecs  DIISMaxEq       ....     5
   Bias factor          DIISBfac        ....   1.050
   Max. coefficient     DIISMaxC        ....  10.000
 Newton-Raphson         CNVNR           .... off
 SOSCF                  CNVSOSCF        .... on
   Start iteration      SOSCFMaxIt      ....   150
   Startup grad/error   SOSCFStart      ....  0.003300
 Level Shifting         CNVShift        .... on
   Level shift para.    LevelShift      ....    0.2500
   Turn off err/grad.   ShiftErr        ....    0.0010
 Zerner damping         CNVZerner       .... off
 Static damping         CNVDamp         .... on
   Fraction old density DampFac         ....    0.7000
   Max. Damping (<1)    DampMax         ....    0.9800
   Min. Damping (>=0)   DampMin         ....    0.0000
   Turn off err/grad.   DampErr         ....    0.1000
 Fernandez-Rico         CNVRico         .... off

SCF Procedure:
 Maximum # iterations   MaxIter         ....   125
 SCF integral mode      SCFMode         .... Direct
   Integral package                     .... LIBINT
 Reset frequeny         DirectResetFreq ....    20
 Integral Threshold     Thresh          ....  2.500e-11 Eh
 Primitive CutOff       TCut            ....  2.500e-12 Eh

Convergence Tolerance:
 Convergence Check Mode ConvCheckMode   .... Total+1el-Energy
 Convergence forced     ConvForced      .... 0
 Energy Change          TolE            ....  1.000e-08 Eh
 1-El. energy change                    ....  1.000e-05 Eh
 Orbital Gradient       TolG            ....  1.000e-05
 Orbital Rotation angle TolX            ....  1.000e-05
 DIIS Error             TolErr          ....  5.000e-07


Diagonalization of the overlap matrix:
Smallest eigenvalue                        ... 5.014e-04
Time for diagonalization                   ...    0.013 sec
Threshold for overlap eigenvalues          ... 1.000e-08
Number of eigenvalues below threshold      ... 0
Time for construction of square roots      ...    0.001 sec
Total time needed                          ...    0.014 sec

--------------------------------
INITIAL GUESS: MINIMAL BASIS EHT
--------------------------------
The minimal basis has 36 functions
EHT matrix was diagonalized
Basis set overlap was calculated now projecting the orbitals
Using GuessMode=FMatrix for the initial guess
C*T matrix was formed
Effective Fockian was calculated
Effective Fockian was diagonalized
Initial density was built
                      ------------------
                      INITIAL GUESS DONE
                      ------------------
-------------------
DFT GRID GENERATION
-------------------

General Integration Accuracy     IntAcc      ...  4.340
Radial Grid Type                 RadialGrid  ... Gauss-Chebyshev
Angular Grid (max. acc.)         AngularGrid ... Lebedev-194
Angular grid pruning method      GridPruning ... 3 (G Style)
Weight generation scheme         WeightScheme... Becke
Basis function cutoff            BFCut       ...    1.0000e-11
Integration weight cutoff        WCut        ...    1.0000e-14
Grids for H and He will be reduced by one unit

# of grid points (after initial pruning)     ...  28824 (   0.0 sec)
# of grid points (after weights+screening)   ...  27001 (   0.0 sec)
nearest neighbour list constructed           ...    0.0 sec
Grid point re-assignment to atoms done       ...    0.0 sec
Grid point division into batches done        ...    0.1 sec
Reduced shell lists constructed in    0.1 sec

Total number of grid points                  ...    27001
Total number of batches                      ...      428
Average number of points per batch           ...       63
Average number of grid points per atom       ...     2250
Average number of shells per batch           ...    44.35 (82.13%)
Average number of basis functions per batch  ...    91.91 (90.11%)
Average number of large shells per batch     ...    38.67 (87.18%)
Average number of large basis fcns per batch ...    81.59 (88.78%)
Maximum spatial batch extension              ...  14.01, 13.41, 14.08 au
Average spatial batch extension              ...   0.60,  0.59,  0.59 au

Time for grid setup =    0.176 sec

--------------
SCF ITERATIONS
--------------
ITER       Energy         Delta-E        Max-DP      RMS-DP      [F,P]     Damp
               ***  Starting incremental Fock matrix formation  ***
  0   -231.1833786767   0.000000000000 0.04422054  0.00389499  0.4009455 0.7000
  1   -231.3411584848  -0.157779808120 0.03422799  0.00286721  0.2828168 0.7000
                               ***Turning on DIIS***
  2   -231.4551393874  -0.113980902609 0.02584470  0.00211668  0.1984243 0.7000
  3   -231.5366668567  -0.081527469290 0.02105361  0.00166661  0.1392254 0.7000
  4   -231.5947410237  -0.058074166957 0.05259672  0.00413553  0.0975992 0.0000
                      *** Initiating the SOSCF procedure ***
                           *** Shutting down DIIS ***
                      *** Re-Reading the Fockian *** 
                      *** Removing any level shift *** 
ITER      Energy       Delta-E        Grad      Rot      Max-DP    RMS-DP
  5   -231.73422369  -0.1394826634  0.002543  0.002543  0.001471  0.000120
               *** Restarting incremental Fock matrix formation ***
  6   -231.73428927  -0.0000655806  0.000853  0.000908  0.000589  0.000043
  7   -231.73429690  -0.0000076287  0.000125  0.000166  0.000137  0.000010
  8   -231.73429713  -0.0000002321  0.000031  0.000031  0.000034  0.000003
  9   -231.73429714  -0.0000000088  0.000019  0.000018  0.000012  0.000001
                 **** Energy Check signals convergence ****
              ***Rediagonalizing the Fockian in SOSCF/NRSCF***

               *****************************************************
               *                     SUCCESS                       *
               *           SCF CONVERGED AFTER  10 CYCLES          *
               *****************************************************


----------------
TOTAL SCF ENERGY
----------------

Total Energy       :         -231.73429714 Eh           -6305.81081 eV

Components:
Nuclear Repulsion  :          203.01933464 Eh            5524.43695 eV
Electronic Energy  :         -434.75363178 Eh          -11830.24776 eV
One Electron Energy:         -713.03501232 Eh          -19402.66910 eV
Two Electron Energy:          278.28138053 Eh            7572.42134 eV

Virial components:
Potential Energy   :         -461.46287925 Eh          -12557.04333 eV
Kinetic Energy     :          229.72858211 Eh            6251.23253 eV
Virial Ratio       :            2.00873080


DFT components:
N(Alpha)           :       20.998946082168 electrons
N(Beta)            :       20.998946082168 electrons
N(Total)           :       41.997892164337 electrons
E(X)               :      -18.498293874389 Eh       
E(C)               :       -1.799736068175 Eh       
E(XC)              :      -20.298029942565 Eh       

---------------
SCF CONVERGENCE
---------------

  Last Energy change         ...   -6.7216e-09  Tolerance :   1.0000e-08
  Last MAX-Density change    ...    4.5547e-07  Tolerance :   1.0000e-07
  Last RMS-Density change    ...    3.8838e-08  Tolerance :   5.0000e-09
  Last Orbital Gradient      ...    4.1798e-07  Tolerance :   1.0000e-05
  Last Orbital Rotation      ...    5.9370e-07  Tolerance :   1.0000e-05

             **** THE GBW FILE WAS UPDATED (benzene.gbw) ****
             **** DENSITY FILE WAS UPDATED (benzene.scfp.tmp) ****
             **** ENERGY FILE WAS UPDATED (benzene.en.tmp) ****
----------------
ORBITAL ENERGIES
----------------

  NO   OCC          E(Eh)            E(eV) 
   0   2.0000     -10.450429      -284.3706 
   1   2.0000     -10.450221      -284.3650 
   2   2.0000     -10.450220      -284.3650 
   3   2.0000     -10.449630      -284.3489 
   4   2.0000     -10.449629      -284.3489 
   5   2.0000     -10.449411      -284.3429 
   6   2.0000      -0.949421       -25.8350 
   7   2.0000      -0.834116       -22.6975 
   8   2.0000      -0.834115       -22.6974 
   9   2.0000      -0.678346       -18.4587 
  10   2.0000      -0.678345       -18.4587 
  11   2.0000      -0.590585       -16.0706 
  12   2.0000      -0.526979       -14.3398 
  13   2.0000      -0.506919       -13.7940 
  14   2.0000      -0.481287       -13.0965 
  15   2.0000      -0.481286       -13.0965 
  16   2.0000      -0.419047       -11.4029 
  17   2.0000      -0.398509       -10.8440 
  18   2.0000      -0.398507       -10.8439 
  19   2.0000      -0.291737        -7.9386 
  20   2.0000      -0.291734        -7.9385 
  21   0.0000       0.018022         0.4904 
  22   0.0000       0.018041         0.4909 
  23   0.0000       0.140703         3.8287 
  24   0.0000       0.193622         5.2687 
  25   0.0000       0.201627         5.4866 
  26   0.0000       0.201632         5.4867 
  27   0.0000       0.222115         6.0440 
  28   0.0000       0.222122         6.0443 
  29   0.0000       0.252482         6.8704 
  30   0.0000       0.325874         8.8675 
  31   0.0000       0.325897         8.8681 
  32   0.0000       0.326482         8.8840 
  33   0.0000       0.326503         8.8846 
  34   0.0000       0.451272        12.2797 
  35   0.0000       0.520460        14.1624 
  36   0.0000       0.563720        15.3396 
  37   0.0000       0.585144        15.9226 
  38   0.0000       0.589147        16.0315 
  39   0.0000       0.589158        16.0318 
  40   0.0000       0.615463        16.7476 
  41   0.0000       0.615481        16.7481 
  42   0.0000       0.633097        17.2275 
  43   0.0000       0.633116        17.2280 
  44   0.0000       0.640533        17.4298 
  45   0.0000       0.656457        17.8631 
  46   0.0000       0.656554        17.8657 
  47   0.0000       0.669205        18.2100 
  48   0.0000       0.731091        19.8940 
  49   0.0000       0.750235        20.4149 
  50   0.0000       0.942856        25.6564 
  51   0.0000       0.942908        25.6578 
  52   0.0000       0.963534        26.2191 
  53   0.0000       0.970305        26.4033 
  54   0.0000       0.970311        26.4035 
  55   0.0000       1.037949        28.2440 
  56   0.0000       1.037982        28.2449 
  57   0.0000       1.044649        28.4263 
  58   0.0000       1.085474        29.5373 
  59   0.0000       1.085504        29.5381 
  60   0.0000       1.095057        29.7980 
  61   0.0000       1.095095        29.7991 
  62   0.0000       1.167085        31.7580 
  63   0.0000       1.300279        35.3824 
  64   0.0000       1.300346        35.3842 
  65   0.0000       1.306123        35.5414 
  66   0.0000       1.443202        39.2715 
  67   0.0000       1.535568        41.7849 
  68   0.0000       1.535568        41.7849 
  69   0.0000       1.566537        42.6276 
  70   0.0000       1.566542        42.6278 
  71   0.0000       1.577008        42.9126 
  72   0.0000       1.812798        49.3287 
  73   0.0000       1.815082        49.3909 
  74   0.0000       1.899579        51.6902 
  75   0.0000       2.056488        55.9599 
  76   0.0000       2.056492        55.9600 
  77   0.0000       2.126593        57.8675 
  78   0.0000       2.126597        57.8676 
  79   0.0000       2.188109        59.5415 
  80   0.0000       2.188114        59.5416 
  81   0.0000       2.199834        59.8605 
  82   0.0000       2.199847        59.8609 
  83   0.0000       2.365792        64.3765 
  84   0.0000       2.367923        64.4345 
  85   0.0000       2.367930        64.4347 
  86   0.0000       2.578900        70.1754 
  87   0.0000       2.578917        70.1759 
  88   0.0000       2.720002        74.0150 
  89   0.0000       2.736386        74.4608 
  90   0.0000       2.736389        74.4609 
  91   0.0000       2.779125        75.6238 
  92   0.0000       2.779126        75.6239 
  93   0.0000       2.834577        77.1328 
  94   0.0000       3.052679        83.0676 
  95   0.0000       3.435068        93.4729 
  96   0.0000      13.213392       359.5547 
  97   0.0000      13.627860       370.8329 
  98   0.0000      13.627865       370.8331 
  99   0.0000      14.092570       383.4783 
 100   0.0000      14.092576       383.4785 
 101   0.0000      14.524866       395.2417 

                    ********************************
                    * MULLIKEN POPULATION ANALYSIS *
                    ********************************

-----------------------
MULLIKEN ATOMIC CHARGES
-----------------------
   0 C :   -0.220229
   1 C :   -0.220294
   2 C :   -0.220335
   3 C :   -0.220335
   4 C :   -0.220294
   5 C :   -0.220229
   6 H :    0.220245
   7 H :    0.220354
   8 H :    0.220259
   9 H :    0.220259
  10 H :    0.220354
  11 H :    0.220245
Sum of atomic charges:   -0.0000000

--------------------------------
MULLIKEN REDUCED ORBITAL CHARGES
--------------------------------
  0 C s       :     3.248713  s :     3.248713
      pz      :     0.970118  p :     2.932299
      px      :     1.019945
      py      :     0.942236
      dz2     :     0.007115  d :     0.039217
      dxz     :     0.009782
      dyz     :     0.007825
      dx2y2   :     0.007590
      dxy     :     0.006905
  1 C s       :     3.248514  s :     3.248514
      pz      :     1.024606  p :     2.932563
      px      :     0.935579
      py      :     0.972378
      dz2     :     0.007173  d :     0.039217
      dxz     :     0.007340
      dyz     :     0.009120
      dx2y2   :     0.008033
      dxy     :     0.007551
  2 C s       :     3.248731  s :     3.248731
      pz      :     0.934842  p :     2.932386
      px      :     0.977065
      py      :     1.020478
      dz2     :     0.009099  d :     0.039218
      dxz     :     0.008192
      dyz     :     0.007466
      dx2y2   :     0.005357
      dxy     :     0.009104
  3 C s       :     3.248731  s :     3.248731
      pz      :     0.934842  p :     2.932386
      px      :     0.977065
      py      :     1.020478
      dz2     :     0.009099  d :     0.039218
      dxz     :     0.008192
      dyz     :     0.007466
      dx2y2   :     0.005357
      dxy     :     0.009104
  4 C s       :     3.248514  s :     3.248514
      pz      :     1.024606  p :     2.932563
      px      :     0.935578
      py      :     0.972379
      dz2     :     0.007173  d :     0.039217
      dxz     :     0.007340
      dyz     :     0.009119
      dx2y2   :     0.008033
      dxy     :     0.007551
  5 C s       :     3.248713  s :     3.248713
      pz      :     0.970118  p :     2.932299
      px      :     1.019945
      py      :     0.942236
      dz2     :     0.007115  d :     0.039217
      dxz     :     0.009782
      dyz     :     0.007825
      dx2y2   :     0.007590
      dxy     :     0.006905
  6 H s       :     0.779755  s :     0.779755
  7 H s       :     0.779646  s :     0.779646
  8 H s       :     0.779741  s :     0.779741
  9 H s       :     0.779741  s :     0.779741
 10 H s       :     0.779646  s :     0.779646
 11 H s       :     0.779755  s :     0.779755


                     *******************************
                     * LOEWDIN POPULATION ANALYSIS *
                     *******************************

----------------------
LOEWDIN ATOMIC CHARGES
----------------------
   0 C :   -0.135827
   1 C :   -0.135846
   2 C :   -0.135858
   3 C :   -0.135858
   4 C :   -0.135846
   5 C :   -0.135827
   6 H :    0.135841
   7 H :    0.135844
   8 H :    0.135846
   9 H :    0.135846
  10 H :    0.135844
  11 H :    0.135841

-------------------------------
LOEWDIN REDUCED ORBITAL CHARGES
-------------------------------
  0 C s       :     2.897105  s :     2.897105
      pz      :     1.055186  p :     3.150536
      px      :     1.047449
      py      :     1.047901
      dz2     :     0.016625  d :     0.088186
      dxz     :     0.019835
      dyz     :     0.019726
      dx2y2   :     0.016264
      dxy     :     0.015736
  1 C s       :     2.897098  s :     2.897098
      pz      :     1.051749  p :     3.150563
      px      :     1.052787
      py      :     1.046027
      dz2     :     0.015490  d :     0.088185
      dxz     :     0.017153
      dyz     :     0.018273
      dx2y2   :     0.018204
      dxy     :     0.019066
  2 C s       :     2.897106  s :     2.897106
      pz      :     1.057407  p :     3.150566
      px      :     1.050171
      py      :     1.042987
      dz2     :     0.020779  d :     0.088185
      dxz     :     0.020618
      dyz     :     0.017069
      dx2y2   :     0.011867
      dxy     :     0.017852
  3 C s       :     2.897106  s :     2.897106
      pz      :     1.057406  p :     3.150566
      px      :     1.050171
      py      :     1.042988
      dz2     :     0.020779  d :     0.088185
      dxz     :     0.020618
      dyz     :     0.017069
      dx2y2   :     0.011867
      dxy     :     0.017852
  4 C s       :     2.897098  s :     2.897098
      pz      :     1.051749  p :     3.150563
      px      :     1.052787
      py      :     1.046026
      dz2     :     0.015490  d :     0.088185
      dxz     :     0.017153
      dyz     :     0.018273
      dx2y2   :     0.018204
      dxy     :     0.019066
  5 C s       :     2.897105  s :     2.897105
      pz      :     1.055186  p :     3.150536
      px      :     1.047450
      py      :     1.047901
      dz2     :     0.016625  d :     0.088186
      dxz     :     0.019835
      dyz     :     0.019726
      dx2y2   :     0.016264
      dxy     :     0.015736
  6 H s       :     0.864159  s :     0.864159
  7 H s       :     0.864156  s :     0.864156
  8 H s       :     0.864154  s :     0.864154
  9 H s       :     0.864154  s :     0.864154
 10 H s       :     0.864156  s :     0.864156
 11 H s       :     0.864159  s :     0.864159


                      *****************************
                      * MAYER POPULATION ANALYSIS *
                      *****************************

  NA   - Mulliken gross atomic population
  ZA   - Total nuclear charge
  QA   - Mulliken gross atomic charge
  VA   - Mayer's total valence
  BVA  - Mayer's bonded valence
  FA   - Mayer's free valence

  ATOM       NA         ZA         QA         VA         BVA        FA
  0 C      6.2202     6.0000    -0.2202     3.8178     3.8178     0.0000
  1 C      6.2203     6.0000    -0.2203     3.8179     3.8179    -0.0000
  2 C      6.2203     6.0000    -0.2203     3.8179     3.8179     0.0000
  3 C      6.2203     6.0000    -0.2203     3.8179     3.8179     0.0000
  4 C      6.2203     6.0000    -0.2203     3.8179     3.8179    -0.0000
  5 C      6.2202     6.0000    -0.2202     3.8178     3.8178     0.0000
  6 H      0.7798     1.0000     0.2202     0.9120     0.9120    -0.0000
  7 H      0.7796     1.0000     0.2204     0.9119     0.9119     0.0000
  8 H      0.7797     1.0000     0.2203     0.9120     0.9120     0.0000
  9 H      0.7797     1.0000     0.2203     0.9120     0.9120    -0.0000
 10 H      0.7796     1.0000     0.2204     0.9119     0.9119    -0.0000
 11 H      0.7798     1.0000     0.2202     0.9120     0.9120    -0.0000

  Mayer bond orders larger than 0.1
B(  0-C ,  1-C ) :   1.4252 B(  0-C ,  2-C ) :   1.4252 B(  0-C ,  6-H ) :   0.9200 
B(  1-C ,  3-C ) :   1.4253 B(  1-C ,  7-H ) :   0.9199 B(  2-C ,  4-C ) :   1.4253 
B(  2-C ,  8-H ) :   0.9199 B(  3-C ,  5-C ) :   1.4252 B(  3-C ,  9-H ) :   0.9199 
B(  4-C ,  5-C ) :   1.4252 B(  4-C , 10-H ) :   0.9199 B(  5-C , 11-H ) :   0.9200 


-------
TIMINGS
-------

Total SCF time: 0 days 0 hours 0 min 9 sec 

Total time                  ....       9.319 sec
Sum of individual times     ....       9.267 sec  ( 99.4%)

Fock matrix formation       ....       9.006 sec  ( 96.6%)
  XC integration            ....       1.131 sec  ( 12.6% of F)
    Basis function eval.    ....       0.368 sec  ( 32.5% of XC)
    Density eval.           ....       0.210 sec  ( 18.6% of XC)
    XC-Functional eval.     ....       0.080 sec  (  7.1% of XC)
    XC-Potential eval.      ....       0.347 sec  ( 30.7% of XC)
Diagonalization             ....       0.021 sec  (  0.2%)
Density matrix formation    ....       0.002 sec  (  0.0%)
Population analysis         ....       0.004 sec  (  0.0%)
Initial guess               ....       0.024 sec  (  0.3%)
Orbital Transformation      ....       0.000 sec  (  0.0%)
Orbital Orthonormalization  ....       0.000 sec  (  0.0%)
DIIS solution               ....       0.006 sec  (  0.1%)
SOSCF solution              ....       0.028 sec  (  0.3%)
Grid generation             ....       0.176 sec  (  1.9%)


-------------------------------------------------------------------------------
                          DFT DISPERSION CORRECTION                            
                                                                               
                              DFTD3 V3.1  Rev 1                                
                          USING Becke-Johnson damping                          
-------------------------------------------------------------------------------
The PBEh-3c composite method is recognized
Using three-body term ABC
Active option DFTDOPT                   ...         4   

molecular C6(AA) [au] = 1660.281858 


            DFT-D V3
 parameters
 s6 scaling factor         :     1.0000 
 a1 scaling factor         :     0.4860 
 s8 scaling factor         :     0.0000 
 a2 scaling factor         :     4.5000 
 Damping factor alpha9(ATM):    16.0000 
 ad hoc parameters k1-k3   :    16.0000     1.3333    -4.0000 

 Edisp/kcal,au: -3.684003335762  -0.005870832386 
 E6   /kcal   :  -3.689967560 
 E8   /kcal   :  -0.000000000 
 E6(ABC)      :   0.005964224 
 % E8         :   0.000000000 
 % E6(ABC)    :  -0.161895187 

-------------------------   ----------------
Dispersion correction           -0.005870832
-------------------------   ----------------

------------------   -----------------
gCP correction             0.015039532
------------------   -----------------

-------------------------   --------------------
FINAL SINGLE POINT ENERGY      -231.725128444663
-------------------------   --------------------



           ************************************************************
           *        Program running with 4 parallel MPI-processes     *
           *              working on a common directory               *
           ************************************************************
------------------------------------------------------------------------------
                         ORCA SCF GRADIENT CALCULATION
------------------------------------------------------------------------------

Gradient of the Kohn-Sham DFT energy:
Kohn-Sham wavefunction type      ... RKS
Hartree-Fock exchange scaling    ...    0.420
Number of operators              ...    1
Number of atoms                  ...   12
Basis set dimensions             ...  102
Integral neglect threshold       ... 2.5e-11
Integral primitive cutoff        ... 2.5e-12

Nuclear repulsion gradient       ... done
One Electron Gradient            ... done
Pre-screening matrix             ... done
Starting the two electron gradient:
Will do only exchange terms
Two electron gradient done
RI-J gradient                    ... done
Exchange-correlation gradient    ... done
Dispersion correction            ... done
gCP correction                   ... done

------------------
CARTESIAN GRADIENT
------------------

   1   C   :    0.008867428   -0.003012853   -0.006195209
   2   C   :    0.002509477    0.005709234   -0.009334791
   3   C   :    0.006358181   -0.008710284    0.003136974
   4   C   :   -0.006357966    0.008710511   -0.003136779
   5   C   :   -0.002509284   -0.005709033    0.009334967
   6   C   :   -0.008867833    0.003012425    0.006194835
   7   H   :    0.000176486    0.000054282   -0.000121702
   8   H   :   -0.000003315    0.000168544   -0.000150596
   9   H   :    0.000131926   -0.000167167   -0.000039134
  10   H   :   -0.000131816    0.000167286    0.000039236
  11   H   :    0.000003410   -0.000168446    0.000150686
  12   H   :   -0.000176693   -0.000054500    0.000121512

Difference to translation invariance:
           :    0.0000000000   -0.0000000000    0.0000000000

Norm of the cartesian gradient     ...    0.0275101204
RMS gradient                       ...    0.0045850201
MAX gradient                       ...    0.0093349672

-------
TIMINGS
-------

Total SCF gradient time            ...        3.285 sec

One electron gradient       ....       0.028 sec  (  0.9%)
Prescreening matrices       ....       0.034 sec  (  1.0%)
Two electron gradient       ....       1.745 sec  ( 53.1%)
RI-J Coulomb gradient       ....       0.400 sec  ( 12.2%)
XC gradient                 ....       0.683 sec  ( 20.8%)
------------------------------------------------------------------------------
                         ORCA GEOMETRY RELAXATION STEP
------------------------------------------------------------------------------

Reading the OPT-File                    .... done
Getting information on internals        .... done
Copying old internal coords+grads       .... done
Making the new internal coordinates     .... (new redundants).... done
Validating the new internal coordinates .... (new redundants).... done
Calculating the B-matrix                .... done
Calculating the G,G- and P matrices     .... done
Transforming gradient to internals      .... done
Projecting the internal gradient        .... done
Number of atoms                         ....  12
Number of internal coordinates          ....  54
Current Energy                          ....  -231.725128445 Eh
Current gradient norm                   ....     0.027510120 Eh/bohr
Maximum allowed component of the step   ....  0.300
Current trust radius                    ....  0.300
Evaluating the initial hessian          ....  (Almloef) done
Projecting the Hessian                  .... done
Forming the augmented Hessian           .... done
Diagonalizing the augmented Hessian     .... done
Last element of RFO vector              ....  0.998926640
Lowest eigenvalues of augmented Hessian:
 -0.001294852  0.025201312  0.025201312  0.025201328  0.025201328
Length of the computed step             ....  0.046370043
The final length of the internal step   ....  0.046370043
Converting the step to cartesian space:
 Initial RMS(Int)=    0.0063101636
Transforming coordinates:
 Iter   0:  RMS(Cart)=    0.0110562785 RMS(Int)=    2.0941841624
 Iter   1:  RMS(Cart)=    0.0000008516 RMS(Int)=    0.0000013158
 Iter   2:  RMS(Cart)=    0.0000000041 RMS(Int)=    0.0000000070
done
Storing new coordinates                 .... done

                                .--------------------.
          ----------------------|Geometry convergence|-------------------------
          Item                value                   Tolerance       Converged
          ---------------------------------------------------------------------
          RMS gradient        0.0038099660            0.0001000000      NO
          MAX gradient        0.0114317262            0.0003000000      NO
          RMS step            0.0063101636            0.0020000000      NO
          MAX step            0.0188743085            0.0040000000      NO
          ........................................................
          Max(Bonds)      0.0100      Max(Angles)    0.02
          Max(Dihed)        0.08      Max(Improp)    0.00
          ---------------------------------------------------------------------

The optimization has not yet converged - more geometry cycles are needed


    ---------------------------------------------------------------------------
                         Redundant Internal Coordinates
                            (Angstroem and degrees)

        Definition                    Value    dE/dq     Step     New-Value
    ----------------------------------------------------------------------------
     1. B(C   1,C   0)                1.3990  0.011432 -0.0100    1.3891   
     2. B(C   2,C   0)                1.3990  0.011423 -0.0100    1.3891   
     3. B(C   3,C   1)                1.3990  0.011427 -0.0100    1.3891   
     4. B(C   4,C   2)                1.3990  0.011427 -0.0100    1.3891   
     5. B(C   5,C   4)                1.3990  0.011432 -0.0100    1.3891   
     6. B(C   5,C   3)                1.3990  0.011423 -0.0100    1.3891   
     7. B(H   6,C   0)                1.0823  0.000194 -0.0003    1.0821   
     8. B(H   7,C   1)                1.0823  0.000211 -0.0003    1.0820   
     9. B(H   8,C   2)                1.0823  0.000195 -0.0003    1.0821   
    10. B(H   9,C   3)                1.0823  0.000195 -0.0003    1.0821   
    11. B(H  10,C   4)                1.0823  0.000211 -0.0003    1.0820   
    12. B(H  11,C   5)                1.0823  0.000194 -0.0003    1.0821   
    13. A(C   1,C   0,C   2)          120.00  0.000005   -0.00    120.00   
    14. A(C   1,C   0,H   6)          120.00 -0.000096    0.02    120.02   
    15. A(C   2,C   0,H   6)          120.00  0.000091   -0.01    119.99   
    16. A(C   3,C   1,H   7)          120.00 -0.000087    0.01    120.01   
    17. A(C   0,C   1,H   7)          120.00  0.000092   -0.01    119.99   
    18. A(C   0,C   1,C   3)          120.00 -0.000005    0.00    120.00   
    19. A(C   4,C   2,H   8)          120.00  0.000095   -0.02    119.98   
    20. A(C   0,C   2,H   8)          120.00 -0.000094    0.02    120.02   
    21. A(C   0,C   2,C   4)          120.00 -0.000000    0.00    120.00   
    22. A(C   5,C   3,H   9)          120.00 -0.000094    0.02    120.02   
    23. A(C   1,C   3,H   9)          120.00  0.000095   -0.02    119.98   
    24. A(C   1,C   3,C   5)          120.00 -0.000000    0.00    120.00   
    25. A(C   2,C   4,H  10)          120.00 -0.000087    0.01    120.01   
    26. A(C   2,C   4,C   5)          120.00 -0.000005    0.00    120.00   
    27. A(C   5,C   4,H  10)          120.00  0.000092   -0.01    119.99   
    28. A(C   3,C   5,C   4)          120.00  0.000005   -0.00    120.00   
    29. A(C   4,C   5,H  11)          120.00 -0.000096    0.02    120.02   
    30. A(C   3,C   5,H  11)          120.00  0.000091   -0.01    119.99   
    31. D(H   7,C   1,C   0,C   2)    180.00 -0.000008    0.02    180.02   
    32. D(H   7,C   1,C   0,H   6)     -0.00  0.000015   -0.03     -0.03   
    33. D(C   3,C   1,C   0,H   6)    180.00  0.000031   -0.07    179.93   
    34. D(C   3,C   1,C   0,C   2)     -0.00  0.000009   -0.02     -0.02   
    35. D(H   8,C   2,C   0,C   1)   -180.00 -0.000014    0.03   -179.97   
    36. D(C   4,C   2,C   0,C   1)      0.00 -0.000009    0.02      0.02   
    37. D(C   4,C   2,C   0,H   6)   -180.00 -0.000031    0.07   -179.93   
    38. D(H   8,C   2,C   0,H   6)      0.00 -0.000036    0.08      0.08   
    39. D(H   9,C   3,C   1,H   7)     -0.00  0.000002   -0.00     -0.00   
    40. D(H   9,C   3,C   1,C   0)   -180.00 -0.000014    0.03   -179.97   
    41. D(C   5,C   3,C   1,H   7)    180.00  0.000007   -0.02    179.98   
    42. D(C   5,C   3,C   1,C   0)     -0.00 -0.000009    0.02      0.02   
    43. D(H  10,C   4,C   2,C   0)    180.00 -0.000007    0.02    180.02   
    44. D(C   5,C   4,C   2,H   8)   -180.00  0.000014   -0.03   -180.03   
    45. D(C   5,C   4,C   2,C   0)     -0.00  0.000009   -0.02     -0.02   
    46. D(H  10,C   4,C   2,H   8)     -0.00 -0.000002    0.00      0.00   
    47. D(H  11,C   5,C   4,H  10)     -0.00 -0.000015    0.03      0.03   
    48. D(C   3,C   5,C   4,H  10)    180.00  0.000007   -0.02    179.98   
    49. D(C   3,C   5,C   4,C   2)     -0.00 -0.000009    0.02      0.02   
    50. D(H  11,C   5,C   3,H   9)      0.00  0.000036   -0.08     -0.08   
    51. D(H  11,C   5,C   3,C   1)   -180.00  0.000031   -0.07   -180.07   
    52. D(H  11,C   5,C   4,C   2)    180.00 -0.000031    0.07    180.07   
    53. D(C   4,C   5,C   3,H   9)   -180.00  0.000014   -0.03   -180.03   
    54. D(C   4,C   5,C   3,C   1)      0.00  0.000009   -0.02     -0.02   
    ----------------------------------------------------------------------------

         *************************************************************
         *                GEOMETRY OPTIMIZATION CYCLE   2            *
         *************************************************************
---------------------------------
CARTESIAN COORDINATES (ANGSTROEM)
---------------------------------
  C      1.746975    1.795289   -1.060452
  C      0.948813    2.869606   -1.432278
  C      1.448763    1.073283    0.088143
  C     -0.147782    3.221679   -0.655741
  C      0.352167    1.425355    0.864680
  C     -0.445994    2.499672    0.492854
  H      2.600638    1.520148   -1.665777
  H      1.181171    3.431710   -2.327183
  H      2.070633    0.236656    0.378300
  H     -0.769651    4.058306   -0.945897
  H      0.119810    0.863252    1.759586
  H     -1.299659    2.774811    1.098177

----------------------------
CARTESIAN COORDINATES (A.U.)
----------------------------
  NO LB      ZA    FRAG     MASS         X           Y           Z
   0 C     6.0000    0    12.011    3.301304    3.392605   -2.003963
   1 C     6.0000    0    12.011    1.792997    5.422770   -2.706614
   2 C     6.0000    0    12.011    2.737765    2.028210    0.166566
   3 C     6.0000    0    12.011   -0.279267    6.088090   -1.239171
   4 C     6.0000    0    12.011    0.665500    2.693531    1.634009
   5 C     6.0000    0    12.011   -0.842807    4.723695    0.931358
   6 H     1.0000    0     1.008    4.914493    2.872664   -3.147863
   7 H     1.0000    0     1.008    2.232090    6.484992   -4.397739
   8 H     1.0000    0     1.008    3.912929    0.447215    0.714883
   9 H     1.0000    0     1.008   -1.454430    7.669088   -1.787486
  10 H     1.0000    0     1.008    0.226409    1.631310    3.325136
  11 H     1.0000    0     1.008   -2.456000    5.243632    2.075254

--------------------------------
INTERNAL COORDINATES (ANGSTROEM)
--------------------------------
 C      0   0   0     0.000000000000     0.00000000     0.00000000
 C      1   0   0     1.389054967627     0.00000000     0.00000000
 C      1   2   0     1.389062496083   119.99924984     0.00000000
 C      2   1   3     1.389059424786   120.00070851     0.00000000
 C      3   1   2     1.389059424799   120.00003890     0.00000000
 C      5   3   1     1.389054965632   120.00070854     0.00000000
 H      1   2   3     1.082063625819   120.01545087   179.95208329
 H      2   1   3     1.082037930675   119.98515767   180.01587808
 H      3   1   2     1.082061852426   120.01530123   180.03014788
 H      4   2   1     1.082061850440   119.98465862   180.03003207
 H      5   3   1     1.082037927323   120.01412440   180.01598817
 H      6   5   3     1.082063624977   120.01545080   180.06664059

---------------------------
INTERNAL COORDINATES (A.U.)
---------------------------
 C      0   0   0     0.000000000000     0.00000000     0.00000000
 C      1   0   0     2.624933473778     0.00000000     0.00000000
 C      1   2   0     2.624947700498   119.99924984     0.00000000
 C      2   1   3     2.624941896588   120.00070851     0.00000000
 C      3   1   2     2.624941896611   120.00003890     0.00000000
 C      5   3   1     2.624933470008   120.00070854     0.00000000
 H      1   2   3     2.044803912276   120.01545087   179.95208329
 H      2   1   3     2.044755355490   119.98515767   180.01587808
 H      3   1   2     2.044800561048   120.01530123   180.03014788
 H      4   2   1     2.044800557295   119.98465862   180.03003207
 H      5   3   1     2.044755349156   120.01412440   180.01598817
 H      6   5   3     2.044803910685   120.01545080   180.06664059



           ************************************************************
           *        Program running with 4 parallel MPI-processes     *
           *              working on a common directory               *
           ************************************************************
 One Electron integrals                  ... done
 Pre-screening matrix                    ... done


           ************************************************************
           *        Program running with 4 parallel MPI-processes     *
           *              working on a common directory               *
           ************************************************************

Diagonalization of the overlap matrix:
Smallest eigenvalue                        ... 4.775e-04
Time for diagonalization                   ...    0.003 sec
Threshold for overlap eigenvalues          ... 1.000e-08
Number of eigenvalues below threshold      ... 0
Time for construction of square roots      ...    0.001 sec
Total time needed                          ...    0.004 sec

-------------------
DFT GRID GENERATION
-------------------

General Integration Accuracy     IntAcc      ...  4.340
Radial Grid Type                 RadialGrid  ... Gauss-Chebyshev
Angular Grid (max. acc.)         AngularGrid ... Lebedev-194
Angular grid pruning method      GridPruning ... 3 (G Style)
Weight generation scheme         WeightScheme... Becke
Basis function cutoff            BFCut       ...    1.0000e-11
Integration weight cutoff        WCut        ...    1.0000e-14
Grids for H and He will be reduced by one unit

# of grid points (after initial pruning)     ...  28824 (   0.0 sec)
# of grid points (after weights+screening)   ...  26996 (   0.0 sec)
nearest neighbour list constructed           ...    0.0 sec
Grid point re-assignment to atoms done       ...    0.0 sec
Grid point division into batches done        ...    0.1 sec
Reduced shell lists constructed in    0.1 sec

Total number of grid points                  ...    26996
Total number of batches                      ...      428
Average number of points per batch           ...       63
Average number of grid points per atom       ...     2250
Average number of shells per batch           ...    44.40 (82.22%)
Average number of basis functions per batch  ...    91.95 (90.15%)
Average number of large shells per batch     ...    38.71 (87.19%)
Average number of large basis fcns per batch ...    81.82 (88.98%)
Maximum spatial batch extension              ...  13.99, 14.38, 14.08 au
Average spatial batch extension              ...   0.59,  0.59,  0.59 au

Time for grid setup =    0.176 sec

--------------
SCF ITERATIONS
--------------
ITER       Energy         Delta-E        Max-DP      RMS-DP      [F,P]     Damp
               ***  Starting incremental Fock matrix formation  ***
                      *** Initiating the SOSCF procedure ***
                      *** Re-Reading the Fockian *** 
                      *** Removing any level shift *** 
ITER      Energy       Delta-E        Grad      Rot      Max-DP    RMS-DP
  0   -231.73509446 -231.7350944611  0.002892  0.002892  0.003067  0.000228
               *** Restarting incremental Fock matrix formation ***
  1   -231.73520835  -0.0001138886  0.000826  0.001059  0.000978  0.000082
  2   -231.73521619  -0.0000078392  0.000523  0.000424  0.000393  0.000031
  3   -231.73522048  -0.0000042865  0.000028  0.000023  0.000045  0.000003
                  ***Gradient check signals convergence***
              ***Rediagonalizing the Fockian in SOSCF/NRSCF***

               *****************************************************
               *                     SUCCESS                       *
               *           SCF CONVERGED AFTER   4 CYCLES          *
               *****************************************************

Total Energy       :         -231.73522049 Eh           -6305.83593 eV
  Last Energy change         ...   -1.4373e-08  Tolerance :   1.0000e-08
  Last MAX-Density change    ...    3.8024e-06  Tolerance :   1.0000e-07
             **** THE GBW FILE WAS UPDATED (benzene.gbw) ****
             **** DENSITY FILE WAS UPDATED (benzene.scfp.tmp) ****
             **** ENERGY FILE WAS UPDATED (benzene.en.tmp) ****
Total SCF time: 0 days 0 hours 0 min 4 sec 


-------------------------------------------------------------------------------
                          DFT DISPERSION CORRECTION                            
                                                                               
                              DFTD3 V3.1  Rev 1                                
                          USING Becke-Johnson damping                          
-------------------------------------------------------------------------------
-------------------------   ----------------
Dispersion correction           -0.005888077
-------------------------   ----------------

------------------   -----------------
gCP correction             0.015248325
------------------   -----------------

-------------------------   --------------------
FINAL SINGLE POINT ENERGY      -231.725860241290
-------------------------   --------------------



           ************************************************************
           *        Program running with 4 parallel MPI-processes     *
           *              working on a common directory               *
           ************************************************************
------------------------------------------------------------------------------
                         ORCA SCF GRADIENT CALCULATION
------------------------------------------------------------------------------

Gradient of the Kohn-Sham DFT energy:
Kohn-Sham wavefunction type      ... RKS
Hartree-Fock exchange scaling    ...    0.420
Number of operators              ...    1
Number of atoms                  ...   12
Basis set dimensions             ...  102
Integral neglect threshold       ... 2.5e-11
Integral primitive cutoff        ... 2.5e-12

Nuclear repulsion gradient       ... done
One Electron Gradient            ... done
Pre-screening matrix             ... done
Starting the two electron gradient:
Will do only exchange terms
Two electron gradient done
RI-J gradient                    ... done
Exchange-correlation gradient    ... done
Dispersion correction            ... done
gCP correction                   ... done

------------------
CARTESIAN GRADIENT
------------------

   1   C   :    0.001255439   -0.000487294   -0.000823331
   2   C   :    0.000439438    0.000771552   -0.001309821
   3   C   :    0.000844739   -0.001230964    0.000520345
   4   C   :   -0.000844835    0.001230862   -0.000520435
   5   C   :   -0.000439529   -0.000771647    0.001309737
   6   C   :   -0.001255253    0.000487494    0.000823505
   7   H   :   -0.000135502    0.000090091    0.000072771
   8   H   :   -0.000065159   -0.000051547    0.000157425
   9   H   :   -0.000080838    0.000126939   -0.000097206
  10   H   :    0.000080895   -0.000126882    0.000097259
  11   H   :    0.000065210    0.000051601   -0.000157379
  12   H   :    0.000135394   -0.000090205   -0.000072871

Difference to translation invariance:
           :   -0.0000000000   -0.0000000000    0.0000000000

Norm of the cartesian gradient     ...    0.0038963250
RMS gradient                       ...    0.0006493875
MAX gradient                       ...    0.0013098207

-------
TIMINGS
-------

Total SCF gradient time            ...        3.048 sec

One electron gradient       ....       0.033 sec  (  1.1%)
Prescreening matrices       ....       0.038 sec  (  1.2%)
Two electron gradient       ....       1.745 sec  ( 57.3%)
RI-J Coulomb gradient       ....       0.308 sec  ( 10.1%)
XC gradient                 ....       0.568 sec  ( 18.6%)
------------------------------------------------------------------------------
                         ORCA GEOMETRY RELAXATION STEP
------------------------------------------------------------------------------

Reading the OPT-File                    .... done
Getting information on internals        .... done
Copying old internal coords+grads       .... done
Making the new internal coordinates     .... (new redundants).... done
Validating the new internal coordinates .... (new redundants).... done
Calculating the B-matrix                .... done
Calculating the G,G- and P matrices     .... done
Transforming gradient to internals      .... done
Projecting the internal gradient        .... done
Number of atoms                         ....  12
Number of internal coordinates          ....  54
Current Energy                          ....  -231.725860241 Eh
Current gradient norm                   ....     0.003896325 Eh/bohr
Maximum allowed component of the step   ....  0.300
Current trust radius                    ....  0.300
Updating the Hessian (BFGS)             .... done
Forming the augmented Hessian           .... done
Diagonalizing the augmented Hessian     .... done
Last element of RFO vector              ....  0.999977495
Lowest eigenvalues of augmented Hessian:
 -0.000023121  0.025200451  0.025201312  0.025201322  0.025201328
Length of the computed step             ....  0.006708994
The final length of the internal step   ....  0.006708994
Converting the step to cartesian space:
 Initial RMS(Int)=    0.0009129784
Transforming coordinates:
 Iter   0:  RMS(Cart)=    0.0013952930 RMS(Int)=    0.0009129802
 Iter   1:  RMS(Cart)=    0.0000000469 RMS(Int)=    0.0000000567
done
Storing new coordinates                 .... done

                                .--------------------.
          ----------------------|Geometry convergence|-------------------------
          Item                value                   Tolerance       Converged
          ---------------------------------------------------------------------
          Energy change      -0.0007317966            0.0000050000      NO
          RMS gradient        0.0004729588            0.0001000000      NO
          MAX gradient        0.0014109146            0.0003000000      NO
          RMS step            0.0009129784            0.0020000000      YES
          MAX step            0.0026684550            0.0040000000      YES
          ........................................................
          Max(Bonds)      0.0014      Max(Angles)    0.01
          Max(Dihed)        0.02      Max(Improp)    0.00
          ---------------------------------------------------------------------

The optimization has not yet converged - more geometry cycles are needed


    ---------------------------------------------------------------------------
                         Redundant Internal Coordinates
                            (Angstroem and degrees)

        Definition                    Value    dE/dq     Step     New-Value
    ----------------------------------------------------------------------------
     1. B(C   1,C   0)                1.3891  0.001403 -0.0014    1.3877   
     2. B(C   2,C   0)                1.3891  0.001411 -0.0014    1.3877   
     3. B(C   3,C   1)                1.3891  0.001404 -0.0014    1.3877   
     4. B(C   4,C   2)                1.3891  0.001404 -0.0014    1.3877   
     5. B(C   5,C   4)                1.3891  0.001403 -0.0014    1.3877   
     6. B(C   5,C   3)                1.3891  0.001411 -0.0014    1.3877   
     7. B(H   6,C   0)                1.0821 -0.000171  0.0003    1.0823   
     8. B(H   7,C   1)                1.0820 -0.000171  0.0003    1.0823   
     9. B(H   8,C   2)                1.0821 -0.000171  0.0003    1.0823   
    10. B(H   9,C   3)                1.0821 -0.000171  0.0003    1.0823   
    11. B(H  10,C   4)                1.0820 -0.000171  0.0003    1.0823   
    12. B(H  11,C   5)                1.0821 -0.000171  0.0003    1.0823   
    13. A(C   1,C   0,C   2)          120.00  0.000002   -0.00    120.00   
    14. A(C   1,C   0,H   6)          120.02 -0.000062    0.01    120.03   
    15. A(C   2,C   0,H   6)          119.99  0.000059   -0.01    119.97   
    16. A(C   3,C   1,H   7)          120.01 -0.000057    0.01    120.02   
    17. A(C   0,C   1,H   7)          119.99  0.000060   -0.01    119.97   
    18. A(C   0,C   1,C   3)          120.00 -0.000003    0.00    120.00   
    19. A(C   4,C   2,H   8)          119.98  0.000061   -0.01    119.97   
    20. A(C   0,C   2,H   8)          120.02 -0.000062    0.01    120.03   
    21. A(C   0,C   2,C   4)          120.00  0.000000   -0.00    120.00   
    22. A(C   5,C   3,H   9)          120.02 -0.000062    0.01    120.03   
    23. A(C   1,C   3,H   9)          119.98  0.000061   -0.01    119.97   
    24. A(C   1,C   3,C   5)          120.00  0.000000   -0.00    120.00   
    25. A(C   2,C   4,H  10)          120.01 -0.000057    0.01    120.02   
    26. A(C   2,C   4,C   5)          120.00 -0.000003    0.00    120.00   
    27. A(C   5,C   4,H  10)          119.99  0.000060   -0.01    119.97   
    28. A(C   3,C   5,C   4)          120.00  0.000002   -0.00    120.00   
    29. A(C   4,C   5,H  11)          120.02 -0.000062    0.01    120.03   
    30. A(C   3,C   5,H  11)          119.99  0.000059   -0.01    119.97   
    31. D(H   7,C   1,C   0,C   2)   -179.98  0.000000   -0.00   -179.98   
    32. D(H   7,C   1,C   0,H   6)     -0.03  0.000005   -0.01     -0.05   
    33. D(C   3,C   1,C   0,H   6)    179.93  0.000002   -0.01    179.93   
    34. D(C   3,C   1,C   0,C   2)     -0.02 -0.000003    0.01     -0.01   
    35. D(H   8,C   2,C   0,C   1)   -179.97 -0.000001    0.00   -179.97   
    36. D(C   4,C   2,C   0,C   1)      0.02  0.000003   -0.01      0.01   
    37. D(C   4,C   2,C   0,H   6)   -179.93 -0.000002    0.01   -179.93   
    38. D(H   8,C   2,C   0,H   6)      0.08 -0.000006    0.02      0.09   
    39. D(H   9,C   3,C   1,H   7)     -0.00 -0.000004    0.01      0.01   
    40. D(H   9,C   3,C   1,C   0)   -179.97 -0.000001    0.00   -179.97   
    41. D(C   5,C   3,C   1,H   7)    179.98 -0.000000    0.00    179.98   
    42. D(C   5,C   3,C   1,C   0)      0.02  0.000003   -0.01      0.01   
    43. D(H  10,C   4,C   2,C   0)   -179.98  0.000000   -0.00   -179.98   
    44. D(C   5,C   4,C   2,H   8)    179.97  0.000001   -0.00    179.97   
    45. D(C   5,C   4,C   2,C   0)     -0.02 -0.000003    0.01     -0.01   
    46. D(H  10,C   4,C   2,H   8)      0.00  0.000004   -0.01     -0.01   
    47. D(H  11,C   5,C   4,H  10)      0.03 -0.000005    0.01      0.04   
    48. D(C   3,C   5,C   4,H  10)    179.98 -0.000000    0.00    179.98   
    49. D(C   3,C   5,C   4,C   2)      0.02  0.000003   -0.01      0.01   
    50. D(H  11,C   5,C   3,H   9)     -0.08  0.000006   -0.02     -0.09   
    51. D(H  11,C   5,C   3,C   1)    179.93  0.000002   -0.01    179.93   
    52. D(H  11,C   5,C   4,C   2)   -179.93 -0.000002    0.01   -179.93   
    53. D(C   4,C   5,C   3,H   9)    179.97  0.000001   -0.00    179.97   
    54. D(C   4,C   5,C   3,C   1)     -0.02 -0.000003    0.01     -0.01   
    ----------------------------------------------------------------------------

         *************************************************************
         *                GEOMETRY OPTIMIZATION CYCLE   3            *
         *************************************************************
---------------------------------
CARTESIAN COORDINATES (ANGSTROEM)
---------------------------------
  C      1.745875    1.795734   -1.059699
  C      0.948435    2.868920   -1.431099
  C      1.447994    1.074368    0.087677
  C     -0.147013    3.220594   -0.655275
  C      0.352546    1.426042    0.863501
  C     -0.444894    2.499226    0.492100
  H      2.599720    1.520349   -1.665152
  H      1.180992    3.431127   -2.326224
  H      2.069990    0.237559    0.378075
  H     -0.769009    4.057403   -0.945672
  H      0.119989    0.863834    1.758626
  H     -1.298740    2.774611    1.097553

----------------------------
CARTESIAN COORDINATES (A.U.)
----------------------------
  NO LB      ZA    FRAG     MASS         X           Y           Z
   0 C     6.0000    0    12.011    3.299225    3.393446   -2.002540
   1 C     6.0000    0    12.011    1.792283    5.421473   -2.704385
   2 C     6.0000    0    12.011    2.736312    2.030260    0.165685
   3 C     6.0000    0    12.011   -0.277814    6.086040   -1.238290
   4 C     6.0000    0    12.011    0.666215    2.694828    1.631780
   5 C     6.0000    0    12.011   -0.840729    4.722853    0.929935
   6 H     1.0000    0     1.008    4.912759    2.873043   -3.146681
   7 H     1.0000    0     1.008    2.231751    6.483890   -4.395926
   8 H     1.0000    0     1.008    3.911715    0.448922    0.714457
   9 H     1.0000    0     1.008   -1.453217    7.667380   -1.787062
  10 H     1.0000    0     1.008    0.226747    1.632411    3.323321
  11 H     1.0000    0     1.008   -2.454263    5.243256    2.074075

--------------------------------
INTERNAL COORDINATES (ANGSTROEM)
--------------------------------
 C      0   0   0     0.000000000000     0.00000000     0.00000000
 C      1   0   0     1.387650691730     0.00000000     0.00000000
 C      1   2   0     1.387650410528   119.99884635     0.00000000
 C      2   1   3     1.387654258086   120.00118129     0.00000000
 C      3   1   2     1.387654257160   119.99997135     0.00000000
 C      4   2   1     1.387650410542   119.99997122     0.00000000
 H      1   2   3     1.082341231244   120.02681140   179.93948313
 H      2   1   3     1.082316264558   119.97417368   180.01549200
 H      3   1   2     1.082339709299   120.02668867   180.03332571
 H      4   2   1     1.082339711256   119.97333625   180.03328442
 H      5   3   1     1.082316262307   120.02463941   180.01553222
 H      6   4   2     1.082341230634   119.97431467   179.92794361

---------------------------
INTERNAL COORDINATES (A.U.)
---------------------------
 C      0   0   0     0.000000000000     0.00000000     0.00000000
 C      1   0   0     2.622279776916     0.00000000     0.00000000
 C      1   2   0     2.622279245520   119.99884635     0.00000000
 C      2   1   3     2.622286516351   120.00118129     0.00000000
 C      3   1   2     2.622286514602   119.99997135     0.00000000
 C      4   2   1     2.622279245548   119.99997122     0.00000000
 H      1   2   3     2.045328510502   120.02681140   179.93948313
 H      2   1   3     2.045281330303   119.97417368   180.01549200
 H      3   1   2     2.045325634443   120.02668867   180.03332571
 H      4   2   1     2.045325638142   119.97333625   180.03328442
 H      5   3   1     2.045281326050   120.02463941   180.01553222
 H      6   4   2     2.045328509349   119.97431467   179.92794361



           ************************************************************
           *        Program running with 4 parallel MPI-processes     *
           *              working on a common directory               *
           ************************************************************
 One Electron integrals                  ... done
 Pre-screening matrix                    ... done


           ************************************************************
           *        Program running with 4 parallel MPI-processes     *
           *              working on a common directory               *
           ************************************************************

Diagonalization of the overlap matrix:
Smallest eigenvalue                        ... 4.744e-04
Time for diagonalization                   ...    0.003 sec
Threshold for overlap eigenvalues          ... 1.000e-08
Number of eigenvalues below threshold      ... 0
Time for construction of square roots      ...    0.001 sec
Total time needed                          ...    0.004 sec

-------------------
DFT GRID GENERATION
-------------------

General Integration Accuracy     IntAcc      ...  4.340
Radial Grid Type                 RadialGrid  ... Gauss-Chebyshev
Angular Grid (max. acc.)         AngularGrid ... Lebedev-194
Angular grid pruning method      GridPruning ... 3 (G Style)
Weight generation scheme         WeightScheme... Becke
Basis function cutoff            BFCut       ...    1.0000e-11
Integration weight cutoff        WCut        ...    1.0000e-14
Grids for H and He will be reduced by one unit

# of grid points (after initial pruning)     ...  28824 (   0.0 sec)
# of grid points (after weights+screening)   ...  26992 (   0.0 sec)
nearest neighbour list constructed           ...    0.0 sec
Grid point re-assignment to atoms done       ...    0.0 sec
Grid point division into batches done        ...    0.1 sec
Reduced shell lists constructed in    0.1 sec

Total number of grid points                  ...    26992
Total number of batches                      ...      430
Average number of points per batch           ...       62
Average number of grid points per atom       ...     2249
Average number of shells per batch           ...    44.47 (82.35%)
Average number of basis functions per batch  ...    92.03 (90.22%)
Average number of large shells per batch     ...    38.82 (87.29%)
Average number of large basis fcns per batch ...    82.06 (89.17%)
Maximum spatial batch extension              ...  13.99, 14.38, 14.08 au
Average spatial batch extension              ...   0.59,  0.59,  0.59 au

Time for grid setup =    0.172 sec

--------------
SCF ITERATIONS
--------------
ITER       Energy         Delta-E        Max-DP      RMS-DP      [F,P]     Damp
               ***  Starting incremental Fock matrix formation  ***
                      *** Initiating the SOSCF procedure ***
                      *** Re-Reading the Fockian *** 
                      *** Removing any level shift *** 
ITER      Energy       Delta-E        Grad      Rot      Max-DP    RMS-DP
  0   -231.73525399 -231.7352539933  0.000404  0.000404  0.000482  0.000033
               *** Restarting incremental Fock matrix formation ***
  1   -231.73525652  -0.0000025274  0.000117  0.000150  0.000142  0.000012
  2   -231.73525670  -0.0000001821  0.000071  0.000059  0.000052  0.000004
[...]
     16       0.032376   0.041229  -0.037135   0.053145  -0.074117  -0.068010
     17       0.028168   0.036048  -0.032219   0.045966  -0.162292  -0.152254
     18       0.203471   0.259960   0.188414  -0.267540   0.234192  -0.229603
     19       0.216082   0.276421   0.202510  -0.284639  -0.068790   0.086126
     20       0.188788   0.240889   0.175990  -0.249181  -0.155174   0.176371
     21       0.326859  -0.046710  -0.325828  -0.030819  -0.071207  -0.074914
     22       0.348079  -0.049556  -0.347024  -0.031287  -0.154970  -0.166687
     23       0.303811  -0.043285  -0.304069  -0.027454   0.233621   0.240630
     24      -0.122552   0.305627   0.138122   0.296648  -0.162863  -0.182106
     25      -0.130523   0.325971   0.145398   0.317063   0.225327   0.223847
     26      -0.114022   0.284420   0.128099   0.277911  -0.077865  -0.089502
     27       0.122552  -0.305627   0.138122   0.296648  -0.162863   0.182107
     28       0.130523  -0.325971   0.145398   0.317063   0.225327  -0.223847
     29       0.114022  -0.284420   0.128099   0.277911  -0.077865   0.089503
     30      -0.326859   0.046710  -0.325828  -0.030819  -0.071207   0.074915
     31      -0.348079   0.049556  -0.347024  -0.031287  -0.154970   0.166687
     32      -0.303811   0.043285  -0.304069  -0.027454   0.233621  -0.240630
     33      -0.203471  -0.259960   0.188414  -0.267540   0.234192   0.229603
     34      -0.216083  -0.276421   0.202510  -0.284639  -0.068790  -0.086127
     35      -0.188788  -0.240889   0.175990  -0.249180  -0.155174  -0.176372
                 18         19         20         21         22         23    
      0       0.035826  -0.079146   0.047322  -0.007919   0.004433  -0.012205
      1       0.040690   0.006609  -0.066202   0.029184  -0.025283   0.037149
      2       0.036236   0.078156   0.024666  -0.024964   0.024185  -0.029485
      3      -0.038078   0.057974   0.034866   0.030736  -0.047227  -0.003744
      4      -0.041143  -0.056681   0.051290  -0.023428   0.035307   0.005784
      5      -0.032966   0.002652  -0.096047  -0.006389   0.010429  -0.002674
      6      -0.039024  -0.021848  -0.077952  -0.022816  -0.012068  -0.032798
      7      -0.038339   0.076408   0.047307  -0.005770  -0.006945  -0.006966
      8      -0.035534  -0.064706   0.029715   0.031358   0.020960   0.043440
      9       0.039024  -0.021848  -0.077952  -0.022816   0.012068   0.032798
     10       0.038339   0.076408   0.047307  -0.005770   0.006945   0.006966
     11       0.035535  -0.064706   0.029715   0.031358  -0.020960  -0.043440
     12       0.038077   0.057974   0.034866   0.030736   0.047227   0.003744
     13       0.041143  -0.056681   0.051290  -0.023428  -0.035307  -0.005784
     14       0.032966   0.002652  -0.096047  -0.006389  -0.010429   0.002674
     15      -0.035826  -0.079146   0.047322  -0.007919  -0.004433   0.012205
     16      -0.040690   0.006609  -0.066202   0.029184   0.025283  -0.037149
     17      -0.036236   0.078156   0.024666  -0.024964  -0.024185   0.029485
     18      -0.235321  -0.054102   0.141294  -0.084121   0.067175  -0.098501
     19      -0.247288  -0.113135  -0.392651   0.303436  -0.249671   0.348455
     20      -0.214852   0.184683   0.299223  -0.257065   0.214102  -0.292998
     21       0.231537   0.419410   0.098105   0.320261  -0.450163  -0.044713
     22       0.246254  -0.330114   0.009684  -0.240646   0.338414   0.036456
     23       0.217936  -0.073301  -0.117724  -0.067674   0.096208   0.006383
     24       0.231300   0.147302  -0.289877  -0.236143  -0.134477  -0.304877
     25       0.250238   0.129442  -0.003048  -0.062625  -0.039179  -0.079434
     26       0.216122  -0.303250   0.314980   0.324679   0.189218   0.418253
     27      -0.231301   0.147302  -0.289877  -0.236143   0.134477   0.304877
     28      -0.250238   0.129442  -0.003048  -0.062625   0.039179   0.079434
     29      -0.216122  -0.303250   0.314980   0.324679  -0.189218  -0.418253
     30      -0.231537   0.419410   0.098105   0.320260   0.450163   0.044713
     31      -0.246254  -0.330114   0.009684  -0.240646  -0.338414  -0.036456
     32      -0.217935  -0.073301  -0.117724  -0.067674  -0.096208  -0.006383
     33       0.235321  -0.054102   0.141294  -0.084121  -0.067175   0.098501
     34       0.247288  -0.113135  -0.392651   0.303436   0.249671  -0.348455
     35       0.214852   0.184684   0.299223  -0.257065  -0.214102   0.292998
                 24         25         26         27         28         29    
      0       0.055874  -0.012582   0.046655   0.068105  -0.074407  -0.115875
      1      -0.200129   0.045040   0.041313  -0.108291  -0.078940   0.242776
      2       0.169163  -0.038063  -0.097636   0.050739   0.170678  -0.153435
      3      -0.211064  -0.047544  -0.120385   0.014244   0.173439   0.204530
      4       0.158877   0.035740   0.087039   0.055040  -0.045195  -0.210247
      5       0.045321   0.010219   0.029841  -0.078425  -0.134901   0.020826
      6       0.155219   0.034894   0.009787  -0.103504   0.200729   0.074501
      7       0.041284   0.009318  -0.077232   0.013015   0.045008  -0.118916
      8      -0.214475  -0.048282   0.078027   0.096532  -0.267632   0.056180
      9       0.155219  -0.034894   0.009787  -0.103504  -0.200729  -0.074501
     10       0.041284  -0.009318  -0.077232   0.013015  -0.045008   0.118916
     11      -0.214475   0.048282   0.078027   0.096532   0.267631  -0.056180
     12      -0.211064   0.047544  -0.120385   0.014244  -0.173439  -0.204530
     13       0.158877  -0.035740   0.087039   0.055040   0.045195   0.210247
     14       0.045321  -0.010219   0.029841  -0.078425   0.134901  -0.020826
     15       0.055874   0.012582   0.046655   0.068105   0.074407   0.115875
     16      -0.200129  -0.045040   0.041313  -0.108291   0.078940  -0.242776
     17       0.169163   0.038063  -0.097636   0.050739  -0.170678   0.153435
     18      -0.063661   0.083787   0.140046  -0.041334  -0.161566   0.013621
     19       0.229749  -0.301470  -0.243218   0.318551   0.175029  -0.252343
     20      -0.194818   0.255260   0.128300  -0.320291  -0.027254   0.274280
     21       0.241805   0.317829   0.419533   0.047893  -0.145646  -0.287919
     22      -0.183374  -0.239415  -0.320327   0.045552   0.209421   0.151019
     23      -0.052121  -0.067809  -0.084458  -0.103860  -0.083185   0.136800
     24      -0.178483  -0.234255   0.202342   0.245512  -0.229711   0.114935
     25      -0.046758  -0.061992  -0.045579   0.115330  -0.070403  -0.131673
     26       0.246827   0.323068  -0.165764  -0.396200   0.328085   0.026735
     27      -0.178483   0.234255   0.202342   0.245512   0.229712  -0.114935
     28      -0.046758   0.061992  -0.045579   0.115330   0.070403   0.131673
     29       0.246827  -0.323068  -0.165764  -0.396199  -0.328085  -0.026735
     30       0.241805  -0.317829   0.419533   0.047893   0.145646   0.287919
     31      -0.183374   0.239415  -0.320327   0.045552  -0.209420  -0.151019
     32      -0.052121   0.067809  -0.084458  -0.103860   0.083185  -0.136800
     33      -0.063661  -0.083787   0.140046  -0.041334   0.161566  -0.013621
     34       0.229749   0.301470  -0.243218   0.318551  -0.175029   0.252343
     35      -0.194818  -0.255260   0.128300  -0.320291   0.027254  -0.274280
                 30         31         32         33         34         35    
      0       0.027142   0.034071   0.019486  -0.034695  -0.021253   0.029426
      1      -0.008770  -0.011907  -0.004684   0.009849   0.009090  -0.009489
      2      -0.019229  -0.023096  -0.015649   0.026132   0.012500  -0.020860
      3      -0.007266  -0.002088  -0.010593   0.003142  -0.011116   0.008133
      4      -0.017580   0.001738  -0.025615  -0.001982  -0.027020   0.019698
      5       0.027983   0.000258   0.040772  -0.001107   0.042941  -0.031327
      6      -0.019793  -0.025553   0.012941  -0.024797   0.016372   0.021444
      7       0.026602   0.033111  -0.019600   0.035104  -0.018901  -0.028818
      8      -0.009210  -0.010474   0.008560  -0.013579   0.004060   0.009976
      9      -0.019793   0.025553  -0.012941  -0.024797   0.016372  -0.021444
     10       0.026602  -0.033111   0.019600   0.035104  -0.018901   0.028818
     11      -0.009210   0.010474  -0.008560  -0.013579   0.004060  -0.009976
     12      -0.007266   0.002088   0.010593   0.003142  -0.011116  -0.008133
     13      -0.017580  -0.001738   0.025615  -0.001982  -0.027019  -0.019698
     14       0.027983  -0.000258  -0.040772  -0.001107   0.042941   0.031327
     15       0.027142  -0.034071  -0.019486  -0.034695  -0.021253  -0.029426
     16      -0.008770   0.011907   0.004684   0.009849   0.009090   0.009489
     17      -0.019229   0.023096   0.015649   0.026132   0.012500   0.020860
     18      -0.322544  -0.392051  -0.230929   0.389977   0.229430  -0.318934
     19       0.103967   0.127338   0.072700  -0.124016  -0.076717   0.102799
     20       0.228698   0.276885   0.165725  -0.278470  -0.159522   0.226180
     21       0.086476   0.001696   0.122838  -0.005090   0.124071  -0.088298
     22       0.209202  -0.003198   0.297190  -0.000396   0.300374  -0.213656
     23      -0.332927   0.001865  -0.472957   0.005910  -0.477932   0.340010
     24       0.235089   0.288064  -0.164236   0.286554  -0.162885  -0.232272
     25      -0.316170  -0.386093   0.223279  -0.387617   0.215205   0.312411
     26       0.109668   0.132846  -0.079331   0.136168  -0.071537  -0.108332
     27       0.235090  -0.288064   0.164235   0.286554  -0.162886   0.232272
     28      -0.316170   0.386094  -0.223278  -0.387616   0.215206  -0.312411
     29       0.109668  -0.132846   0.079331   0.136168  -0.071538   0.108332
     30       0.086476  -0.001696  -0.122838  -0.005090   0.124071   0.088298
     31       0.209202   0.003198  -0.297190  -0.000396   0.300374   0.213657
     32      -0.332927  -0.001865   0.472957   0.005910  -0.477931  -0.340010
     33      -0.322543   0.392051   0.230930   0.389977   0.229430   0.318935
     34       0.103967  -0.127338  -0.072701  -0.124016  -0.076717  -0.102799
     35       0.228698  -0.276884  -0.165725  -0.278470  -0.159521  -0.226180


-----------
IR SPECTRUM
-----------

 Mode    freq (cm**-1)   T**2         TX         TY         TZ
-------------------------------------------------------------------
   6:       422.29    0.000054  (  0.006534   0.003333  -0.000666)
   7:       423.11    0.000013  (  0.002544  -0.002300   0.001224)
   8:       634.07    0.000000  (  0.000000   0.000000   0.000000)
   9:       634.14    0.000000  (  0.000001   0.000000   0.000000)
  10:       714.45  129.567696  ( -6.594961  -7.002798  -6.085639)
  11:       744.07    0.000000  ( -0.000001   0.000001   0.000001)
  12:       898.76    0.000000  (  0.000001  -0.000001   0.000001)
  13:       899.05    0.000000  (  0.000001   0.000000  -0.000002)
  14:      1026.18    0.000009  ( -0.001971   0.002291  -0.000114)
  15:      1026.61    0.001992  ( -0.034640   0.025629   0.011631)
  16:      1044.77    0.000015  (  0.000661   0.003443   0.001537)
  17:      1053.21    0.000000  (  0.000000  -0.000000  -0.000000)
  18:      1064.62    0.000000  ( -0.000002   0.000001   0.000001)
  19:      1098.35    6.192536  (  2.023203  -1.247024  -0.737643)
  20:      1098.42    6.182887  ( -0.214684  -1.511532   1.962669)
  21:      1204.85    0.000001  (  0.001006  -0.000624  -0.000132)
  22:      1233.68    0.000000  (  0.000000   0.000000   0.000000)
  23:      1233.74    0.000000  (  0.000000  -0.000000   0.000000)
  24:      1396.32    0.000003  (  0.000729   0.000586  -0.001362)
  25:      1422.79    0.000000  (  0.000000   0.000000  -0.000000)
  26:      1567.88   11.474951  (  2.626270  -2.100241  -0.408223)
  27:      1567.97   11.464704  (  0.877489   1.645880  -2.825915)
  28:      1718.28    0.000000  (  0.000000   0.000000   0.000000)
  29:      1718.37    0.000000  (  0.000000   0.000000   0.000000)
  30:      3258.10    0.001649  (  0.004803   0.015759  -0.037117)
  31:      3267.15    0.000000  (  0.000002  -0.000001  -0.000001)
  32:      3267.40    0.000000  (  0.000001  -0.000001   0.000001)
  33:      3281.48   24.965562  ( -3.921552   2.992850   0.793627)
  34:      3281.76   24.942129  ( -1.114692  -2.559556   4.141046)
  35:      3290.80    0.000000  ( -0.000003  -0.000000   0.000004)

The first frequency considered to be a vibration is 6
The total number of vibrations considered is 30


--------------------------
THERMOCHEMISTRY AT 298.15K
--------------------------

Temperature         ... 298.15 K
Pressure            ... 1.00 atm
Total Mass          ... 78.11 AMU

Throughout the following assumptions are being made:
  (1) The electronic state is orbitally nondegenerate
  (2) There are no thermally accessible electronically excited states
  (3) Hindered rotations indicated by low frequency modes are not
      treated as such but are treated as vibrations and this may
      cause some error
  (4) All equations used are the standard statistical mechanics
      equations for an ideal gas
  (5) All vibrations are strictly harmonic

freq.     422.29  E(vib)   ...       0.18 
freq.     423.11  E(vib)   ...       0.18 
freq.     634.07  E(vib)   ...       0.09 
freq.     634.14  E(vib)   ...       0.09 
freq.     714.45  E(vib)   ...       0.07 
freq.     744.07  E(vib)   ...       0.06 
freq.     898.76  E(vib)   ...       0.03 
freq.     899.05  E(vib)   ...       0.03 
freq.    1026.18  E(vib)   ...       0.02 
freq.    1026.61  E(vib)   ...       0.02 
freq.    1044.77  E(vib)   ...       0.02 
freq.    1053.21  E(vib)   ...       0.02 
freq.    1064.62  E(vib)   ...       0.02 
freq.    1098.35  E(vib)   ...       0.02 
freq.    1098.42  E(vib)   ...       0.02 
freq.    1204.85  E(vib)   ...       0.01 
freq.    1233.68  E(vib)   ...       0.01 
freq.    1233.74  E(vib)   ...       0.01 
freq.    1396.32  E(vib)   ...       0.00 
freq.    1422.79  E(vib)   ...       0.00 
freq.    1567.88  E(vib)   ...       0.00 
freq.    1567.97  E(vib)   ...       0.00 
freq.    1718.28  E(vib)   ...       0.00 
freq.    1718.37  E(vib)   ...       0.00 
freq.    3258.10  E(vib)   ...       0.00 
freq.    3267.15  E(vib)   ...       0.00 
freq.    3267.40  E(vib)   ...       0.00 
freq.    3281.48  E(vib)   ...       0.00 
freq.    3281.76  E(vib)   ...       0.00 
freq.    3290.80  E(vib)   ...       0.00 

------------
INNER ENERGY
------------

The inner energy is: U= E(el) + E(ZPE) + E(vib) + E(rot) + E(trans)
    E(el)   - is the total energy from the electronic structure calculation
              = E(kin-el) + E(nuc-el) + E(el-el) + E(nuc-nuc)
    E(ZPE)  - the the zero temperature vibrational energy from the frequency calculation
    E(vib)  - the the finite temperature correction to E(ZPE) due to population
              of excited vibrational states
    E(rot)  - is the rotational thermal energy
    E(trans)- is the translational thermal energy

Summary of contributions to the inner energy U:
Electronic energy                ...   -231.72587155 Eh
Zero point energy                ...      0.10363987 Eh      65.03 kcal/mol
Thermal vibrational correction   ...      0.00144946 Eh       0.91 kcal/mol
Thermal rotational correction    ...      0.00141627 Eh       0.89 kcal/mol
Thermal translational correction ...      0.00141627 Eh       0.89 kcal/mol
-----------------------------------------------------------------------
Total thermal energy                   -231.61794968 Eh


Summary of corrections to the electronic energy:
(perhaps to be used in another calculation)
Total thermal correction                  0.00428200 Eh       2.69 kcal/mol
Non-thermal (ZPE) correction              0.10363987 Eh      65.03 kcal/mol
-----------------------------------------------------------------------
Total correction                          0.10792187 Eh      67.72 kcal/mol


--------
ENTHALPY
--------

The enthalpy is H = U + kB*T
                kB is Boltzmann's constant
Total free energy                 ...   -231.61794968 Eh 
Thermal Enthalpy correction       ...      0.00094421 Eh       0.59 kcal/mol
-----------------------------------------------------------------------
Total Enthalpy                    ...   -231.61700547 Eh


Vibrational entropy computed according to the QRRHO of S. Grimme
Chem.Eur.J. 2012 18 9955


-------
ENTROPY
-------

The entropy contributions are T*S = T*(S(el)+S(vib)+S(rot)+S(trans)
     S(el)   - electronic entropy
     S(vib)  - vibrational entropy
     S(rot)  - rotational entropy
     S(trans)- translational entropy
The entropies will be listed as mutliplied by the temperature to get
units of energy

Electronic entropy                ...      0.00000000 Eh      0.00 kcal/mol
Vibrational entropy               ...      0.00193907 Eh      1.22 kcal/mol
Rotational entropy                ...      0.01113857 Eh      6.99 kcal/mol
Translational entropy             ...      0.01852142 Eh     11.62 kcal/mol
-----------------------------------------------------------------------
Final entropy term                ...      0.03159906 Eh     19.83 kcal/mol


CAUTION: The rotational entropy is not quite correctly treated here
         because it includes a symmetry number that is not yet correctly
         implemented in ORCA!
For a nonlinear molecule the correct rotational entropy is:
    S(rot) = R*(ln(qrot/sn)+1.5)
    R    = 8.31441 J/mol/K = 1.987191683e-3 kcal/mol/K
    qrot = 88936.7561714
    sn is the rotational symmetry number. We have assumed 3 here
       if it is different for your molecule then you should correct
       the printed rotational entropy by manually evaluating the equation
       as given above

For convenience we print out the resulting values for sn=1 - 12:
 sn= 1  qrot/sn=   88936.7562 T*S(rot)=     7.64 kcal/mol T*S(tot)=    20.48 kcal/mol
 sn= 2  qrot/sn=   44468.3781 T*S(rot)=     7.23 kcal/mol T*S(tot)=    20.07 kcal/mol
 sn= 3  qrot/sn=   29645.5854 T*S(rot)=     6.99 kcal/mol T*S(tot)=    19.83 kcal/mol
 sn= 4  qrot/sn=   22234.1890 T*S(rot)=     6.82 kcal/mol T*S(tot)=    19.66 kcal/mol
 sn= 5  qrot/sn=   17787.3512 T*S(rot)=     6.69 kcal/mol T*S(tot)=    19.53 kcal/mol
 sn= 6  qrot/sn=   14822.7927 T*S(rot)=     6.58 kcal/mol T*S(tot)=    19.42 kcal/mol
 sn= 7  qrot/sn=   12705.2509 T*S(rot)=     6.49 kcal/mol T*S(tot)=    19.33 kcal/mol
 sn= 8  qrot/sn=   11117.0945 T*S(rot)=     6.41 kcal/mol T*S(tot)=    19.25 kcal/mol
 sn= 9  qrot/sn=    9881.8618 T*S(rot)=     6.34 kcal/mol T*S(tot)=    19.18 kcal/mol
 sn=10  qrot/sn=    8893.6756 T*S(rot)=     6.28 kcal/mol T*S(tot)=    19.12 kcal/mol
 sn=11  qrot/sn=    8085.1597 T*S(rot)=     6.22 kcal/mol T*S(tot)=    19.06 kcal/mol
 sn=12  qrot/sn=    7411.3963 T*S(rot)=     6.17 kcal/mol T*S(tot)=    19.01 kcal/mol


-------------------
GIBBS FREE ENTHALPY
-------------------

The Gibbs free enthalpy is G = H - T*S

Total enthalpy                    ...   -231.61700547 Eh 
Total entropy correction          ...     -0.03159906 Eh    -19.83 kcal/mol
-----------------------------------------------------------------------
Final Gibbs free enthalpy         ...   -231.64860453 Eh

For completeness - the Gibbs free enthalpy minus the electronic energy
G-E(el)                           ...      0.07726702 Eh     48.49 kcal/mol


Timings for individual modules:

Sum of individual times         ...      154.047 sec (=   2.567 min)
GTO integral calculation        ...        1.948 sec (=   0.032 min)   1.3 %
SCF iterations                  ...       21.083 sec (=   0.351 min)  13.7 %
SCF Gradient evaluation         ...       10.193 sec (=   0.170 min)   6.6 %
Geometry relaxation             ...        0.148 sec (=   0.002 min)   0.1 %
Analytical frequency calculation...      120.675 sec (=   2.011 min)  78.3 %
                             ****ORCA TERMINATED NORMALLY****
TOTAL RUN TIME: 0 days 0 hours 2 minutes 35 seconds 279 msec
